<?xml version="1.0" encoding="UTF-8"?>

<!-- generated on 2025-04-19 11:49:44 by Eclipse SUMO GUI Version 1.22.0
<sumoConfiguration xmlns:xsi="http://www.w3.org/2001/XMLSchema-instance" xsi:noNamespaceSchemaLocation="http://sumo.dlr.de/xsd/sumoConfiguration.xsd">

    <input>
        <net-file value="D:\smartCyties\tutoriel 1\region.net.xml"/>
        <route-files value="D:\smartCyties\tutoriel 1\region.rou.xml"/>
        <additional-files value="D:\smartCyties\tutoriel 1\region.add.xml"/>
    </input>

    <output>
        <emission-output value="D:\smartCyties\tutoriel 1\emissions.xml"/>
    </output>

    <time>
        <begin value="0"/>
        <end value="360"/>
    </time>

</sumoConfiguration>
-->

<emission-export xmlns:xsi="http://www.w3.org/2001/XMLSchema-instance" xsi:noNamespaceSchemaLocation="http://sumo.dlr.de/xsd/emission_file.xsd">
</emission-export>
