<?xml version="1.0" encoding="UTF-8"?>

<!-- generated on 2025-04-21 20:04:18 by Eclipse SUMO GUI Version 1.22.0
<sumoConfiguration xmlns:xsi="http://www.w3.org/2001/XMLSchema-instance" xsi:noNamespaceSchemaLocation="http://sumo.dlr.de/xsd/sumoConfiguration.xsd">

    <input>
        <net-file value="region.net.xml"/>
        <route-files value="region.rou.xml"/>
        <additional-files value="region.add.xml"/>
    </input>

    <time>
        <begin value="0"/>
        <end value="720"/>
        <step-length value="1"/>
    </time>

    <traci_server>
        <remote-port value="64443"/>
    </traci_server>

</sumoConfiguration>
-->

<detector xmlns:xsi="http://www.w3.org/2001/XMLSchema-instance" xsi:noNamespaceSchemaLocation="http://sumo.dlr.de/xsd/det_e2_file.xsd">
   <interval begin="0.00" end="1.00" id="queue_detector_edge1" sampledSeconds="0.00" nVehEntered="0" nVehLeft="0" nVehSeen="0" meanSpeed="-1.00" meanTimeLoss="-1.00" meanOccupancy="0.00" maxOccupancy="0.00" meanMaxJamLengthInVehicles="0.00" meanMaxJamLengthInMeters="0.00" maxJamLengthInVehicles="0" maxJamLengthInMeters="0.00" jamLengthInVehiclesSum="0" jamLengthInMetersSum="0.00" meanHaltingDuration="0.00" maxHaltingDuration="0.00" haltingDurationSum="0.00" meanIntervalHaltingDuration="0.00" maxIntervalHaltingDuration="0.00" intervalHaltingDurationSum="0.00" startedHalts="0.00" meanVehicleNumber="0.00" maxVehicleNumber="0" />
   <interval begin="1.00" end="2.00" id="queue_detector_edge1" sampledSeconds="1.00" nVehEntered="1" nVehLeft="0" nVehSeen="1" meanSpeed="2.00" meanTimeLoss="0.86" meanOccupancy="5.00" maxOccupancy="5.00" meanMaxJamLengthInVehicles="0.00" meanMaxJamLengthInMeters="0.00" maxJamLengthInVehicles="0" maxJamLengthInMeters="0.00" jamLengthInVehiclesSum="0" jamLengthInMetersSum="0.00" meanHaltingDuration="0.00" maxHaltingDuration="0.00" haltingDurationSum="0.00" meanIntervalHaltingDuration="0.00" maxIntervalHaltingDuration="0.00" intervalHaltingDurationSum="0.00" startedHalts="0.00" meanVehicleNumber="1.00" maxVehicleNumber="1" />
   <interval begin="2.00" end="3.00" id="queue_detector_edge1" sampledSeconds="1.00" nVehEntered="0" nVehLeft="0" nVehSeen="1" meanSpeed="3.69" meanTimeLoss="0.73" meanOccupancy="5.00" maxOccupancy="5.00" meanMaxJamLengthInVehicles="0.00" meanMaxJamLengthInMeters="0.00" maxJamLengthInVehicles="0" maxJamLengthInMeters="0.00" jamLengthInVehiclesSum="0" jamLengthInMetersSum="0.00" meanHaltingDuration="0.00" maxHaltingDuration="0.00" haltingDurationSum="0.00" meanIntervalHaltingDuration="0.00" maxIntervalHaltingDuration="0.00" intervalHaltingDurationSum="0.00" startedHalts="0.00" meanVehicleNumber="1.00" maxVehicleNumber="1" />
   <interval begin="3.00" end="4.00" id="queue_detector_edge1" sampledSeconds="1.00" nVehEntered="0" nVehLeft="0" nVehSeen="1" meanSpeed="4.98" meanTimeLoss="0.64" meanOccupancy="5.00" maxOccupancy="5.00" meanMaxJamLengthInVehicles="0.00" meanMaxJamLengthInMeters="0.00" maxJamLengthInVehicles="0" maxJamLengthInMeters="0.00" jamLengthInVehiclesSum="0" jamLengthInMetersSum="0.00" meanHaltingDuration="0.00" maxHaltingDuration="0.00" haltingDurationSum="0.00" meanIntervalHaltingDuration="0.00" maxIntervalHaltingDuration="0.00" intervalHaltingDurationSum="0.00" startedHalts="0.00" meanVehicleNumber="1.00" maxVehicleNumber="1" />
   <interval begin="4.00" end="5.00" id="queue_detector_edge1" sampledSeconds="2.00" nVehEntered="1" nVehLeft="0" nVehSeen="2" meanSpeed="3.82" meanTimeLoss="0.72" meanOccupancy="10.00" maxOccupancy="10.00" meanMaxJamLengthInVehicles="0.00" meanMaxJamLengthInMeters="0.00" maxJamLengthInVehicles="0" maxJamLengthInMeters="0.00" jamLengthInVehiclesSum="0" jamLengthInMetersSum="0.00" meanHaltingDuration="1.00" maxHaltingDuration="1.00" haltingDurationSum="1.00" meanIntervalHaltingDuration="1.00" maxIntervalHaltingDuration="1.00" intervalHaltingDurationSum="1.00" startedHalts="1.00" meanVehicleNumber="2.00" maxVehicleNumber="2" />
   <interval begin="5.00" end="6.00" id="queue_detector_edge1" sampledSeconds="2.00" nVehEntered="0" nVehLeft="0" nVehSeen="2" meanSpeed="5.20" meanTimeLoss="0.62" meanOccupancy="10.00" maxOccupancy="10.00" meanMaxJamLengthInVehicles="0.00" meanMaxJamLengthInMeters="0.00" maxJamLengthInVehicles="0" maxJamLengthInMeters="0.00" jamLengthInVehiclesSum="0" jamLengthInMetersSum="0.00" meanHaltingDuration="1.00" maxHaltingDuration="1.00" haltingDurationSum="1.00" meanIntervalHaltingDuration="0.00" maxIntervalHaltingDuration="0.00" intervalHaltingDurationSum="0.00" startedHalts="0.00" meanVehicleNumber="2.00" maxVehicleNumber="2" />
   <interval begin="6.00" end="7.00" id="queue_detector_edge1" sampledSeconds="2.00" nVehEntered="0" nVehLeft="0" nVehSeen="2" meanSpeed="6.77" meanTimeLoss="0.50" meanOccupancy="10.00" maxOccupancy="10.00" meanMaxJamLengthInVehicles="0.00" meanMaxJamLengthInMeters="0.00" maxJamLengthInVehicles="0" maxJamLengthInMeters="0.00" jamLengthInVehiclesSum="0" jamLengthInMetersSum="0.00" meanHaltingDuration="0.00" maxHaltingDuration="0.00" haltingDurationSum="0.00" meanIntervalHaltingDuration="0.00" maxIntervalHaltingDuration="0.00" intervalHaltingDurationSum="0.00" startedHalts="0.00" meanVehicleNumber="2.00" maxVehicleNumber="2" />
   <interval begin="7.00" end="8.00" id="queue_detector_edge1" sampledSeconds="3.00" nVehEntered="1" nVehLeft="0" nVehSeen="3" meanSpeed="5.88" meanTimeLoss="0.57" meanOccupancy="15.00" maxOccupancy="15.00" meanMaxJamLengthInVehicles="0.00" meanMaxJamLengthInMeters="0.00" maxJamLengthInVehicles="0" maxJamLengthInMeters="0.00" jamLengthInVehiclesSum="0" jamLengthInMetersSum="0.00" meanHaltingDuration="1.00" maxHaltingDuration="1.00" haltingDurationSum="1.00" meanIntervalHaltingDuration="1.00" maxIntervalHaltingDuration="1.00" intervalHaltingDurationSum="1.00" startedHalts="1.00" meanVehicleNumber="3.00" maxVehicleNumber="3" />
   <interval begin="8.00" end="9.00" id="queue_detector_edge1" sampledSeconds="3.00" nVehEntered="0" nVehLeft="0" nVehSeen="3" meanSpeed="7.35" meanTimeLoss="0.46" meanOccupancy="15.00" maxOccupancy="15.00" meanMaxJamLengthInVehicles="0.00" meanMaxJamLengthInMeters="0.00" maxJamLengthInVehicles="0" maxJamLengthInMeters="0.00" jamLengthInVehiclesSum="0" jamLengthInMetersSum="0.00" meanHaltingDuration="1.00" maxHaltingDuration="1.00" haltingDurationSum="1.00" meanIntervalHaltingDuration="0.00" maxIntervalHaltingDuration="0.00" intervalHaltingDurationSum="0.00" startedHalts="0.00" meanVehicleNumber="3.00" maxVehicleNumber="3" />
   <interval begin="9.00" end="10.00" id="queue_detector_edge1" sampledSeconds="3.00" nVehEntered="0" nVehLeft="0" nVehSeen="3" meanSpeed="8.83" meanTimeLoss="0.35" meanOccupancy="15.00" maxOccupancy="15.00" meanMaxJamLengthInVehicles="0.00" meanMaxJamLengthInMeters="0.00" maxJamLengthInVehicles="0" maxJamLengthInMeters="0.00" jamLengthInVehiclesSum="0" jamLengthInMetersSum="0.00" meanHaltingDuration="0.00" maxHaltingDuration="0.00" haltingDurationSum="0.00" meanIntervalHaltingDuration="0.00" maxIntervalHaltingDuration="0.00" intervalHaltingDurationSum="0.00" startedHalts="0.00" meanVehicleNumber="3.00" maxVehicleNumber="3" />
   <interval begin="10.00" end="11.00" id="queue_detector_edge1" sampledSeconds="4.00" nVehEntered="1" nVehLeft="0" nVehSeen="4" meanSpeed="7.62" meanTimeLoss="0.44" meanOccupancy="20.00" maxOccupancy="20.00" meanMaxJamLengthInVehicles="0.00" meanMaxJamLengthInMeters="0.00" maxJamLengthInVehicles="0" maxJamLengthInMeters="0.00" jamLengthInVehiclesSum="0" jamLengthInMetersSum="0.00" meanHaltingDuration="1.00" maxHaltingDuration="1.00" haltingDurationSum="1.00" meanIntervalHaltingDuration="1.00" maxIntervalHaltingDuration="1.00" intervalHaltingDurationSum="1.00" startedHalts="1.00" meanVehicleNumber="4.00" maxVehicleNumber="4" />
   <interval begin="11.00" end="12.00" id="queue_detector_edge1" sampledSeconds="4.00" nVehEntered="0" nVehLeft="0" nVehSeen="4" meanSpeed="8.95" meanTimeLoss="0.34" meanOccupancy="20.00" maxOccupancy="20.00" meanMaxJamLengthInVehicles="0.00" meanMaxJamLengthInMeters="0.00" maxJamLengthInVehicles="0" maxJamLengthInMeters="0.00" jamLengthInVehiclesSum="0" jamLengthInMetersSum="0.00" meanHaltingDuration="1.00" maxHaltingDuration="1.00" haltingDurationSum="1.00" meanIntervalHaltingDuration="0.00" maxIntervalHaltingDuration="0.00" intervalHaltingDurationSum="0.00" startedHalts="0.00" meanVehicleNumber="4.00" maxVehicleNumber="4" />
   <interval begin="12.00" end="13.00" id="queue_detector_edge1" sampledSeconds="3.41" nVehEntered="0" nVehLeft="1" nVehSeen="4" meanSpeed="9.35" meanTimeLoss="0.26" meanOccupancy="15.00" maxOccupancy="15.00" meanMaxJamLengthInVehicles="0.00" meanMaxJamLengthInMeters="0.00" maxJamLengthInVehicles="0" maxJamLengthInMeters="0.00" jamLengthInVehiclesSum="0" jamLengthInMetersSum="0.00" meanHaltingDuration="0.00" maxHaltingDuration="0.00" haltingDurationSum="0.00" meanIntervalHaltingDuration="0.00" maxIntervalHaltingDuration="0.00" intervalHaltingDurationSum="0.00" startedHalts="0.00" meanVehicleNumber="4.00" maxVehicleNumber="4" />
   <interval begin="13.00" end="14.00" id="queue_detector_edge1" sampledSeconds="3.00" nVehEntered="0" nVehLeft="0" nVehSeen="3" meanSpeed="9.70" meanTimeLoss="0.28" meanOccupancy="15.00" maxOccupancy="15.00" meanMaxJamLengthInVehicles="0.00" meanMaxJamLengthInMeters="0.00" maxJamLengthInVehicles="0" maxJamLengthInMeters="0.00" jamLengthInVehiclesSum="0" jamLengthInMetersSum="0.00" meanHaltingDuration="0.00" maxHaltingDuration="0.00" haltingDurationSum="0.00" meanIntervalHaltingDuration="0.00" maxIntervalHaltingDuration="0.00" intervalHaltingDurationSum="0.00" startedHalts="0.00" meanVehicleNumber="3.00" maxVehicleNumber="3" />
   <interval begin="14.00" end="15.00" id="queue_detector_edge1" sampledSeconds="4.00" nVehEntered="1" nVehLeft="0" nVehSeen="4" meanSpeed="8.21" meanTimeLoss="0.40" meanOccupancy="20.00" maxOccupancy="20.00" meanMaxJamLengthInVehicles="0.00" meanMaxJamLengthInMeters="0.00" maxJamLengthInVehicles="0" maxJamLengthInMeters="0.00" jamLengthInVehiclesSum="0" jamLengthInMetersSum="0.00" meanHaltingDuration="0.00" maxHaltingDuration="0.00" haltingDurationSum="0.00" meanIntervalHaltingDuration="0.00" maxIntervalHaltingDuration="0.00" intervalHaltingDurationSum="0.00" startedHalts="0.00" meanVehicleNumber="4.00" maxVehicleNumber="4" />
   <interval begin="15.00" end="16.00" id="queue_detector_edge1" sampledSeconds="3.51" nVehEntered="0" nVehLeft="1" nVehSeen="4" meanSpeed="8.81" meanTimeLoss="0.31" meanOccupancy="15.00" maxOccupancy="15.00" meanMaxJamLengthInVehicles="0.00" meanMaxJamLengthInMeters="0.00" maxJamLengthInVehicles="0" maxJamLengthInMeters="0.00" jamLengthInVehiclesSum="0" jamLengthInMetersSum="0.00" meanHaltingDuration="0.00" maxHaltingDuration="0.00" haltingDurationSum="0.00" meanIntervalHaltingDuration="0.00" maxIntervalHaltingDuration="0.00" intervalHaltingDurationSum="0.00" startedHalts="0.00" meanVehicleNumber="4.00" maxVehicleNumber="4" />
   <interval begin="16.00" end="17.00" id="queue_detector_edge1" sampledSeconds="3.00" nVehEntered="0" nVehLeft="0" nVehSeen="3" meanSpeed="8.97" meanTimeLoss="0.35" meanOccupancy="15.00" maxOccupancy="15.00" meanMaxJamLengthInVehicles="0.00" meanMaxJamLengthInMeters="0.00" maxJamLengthInVehicles="0" maxJamLengthInMeters="0.00" jamLengthInVehiclesSum="0" jamLengthInMetersSum="0.00" meanHaltingDuration="0.00" maxHaltingDuration="0.00" haltingDurationSum="0.00" meanIntervalHaltingDuration="0.00" maxIntervalHaltingDuration="0.00" intervalHaltingDurationSum="0.00" startedHalts="0.00" meanVehicleNumber="3.00" maxVehicleNumber="3" />
   <interval begin="17.00" end="18.00" id="queue_detector_edge1" sampledSeconds="4.00" nVehEntered="1" nVehLeft="0" nVehSeen="4" meanSpeed="7.96" meanTimeLoss="0.42" meanOccupancy="20.00" maxOccupancy="20.00" meanMaxJamLengthInVehicles="0.00" meanMaxJamLengthInMeters="0.00" maxJamLengthInVehicles="0" maxJamLengthInMeters="0.00" jamLengthInVehiclesSum="0" jamLengthInMetersSum="0.00" meanHaltingDuration="1.00" maxHaltingDuration="1.00" haltingDurationSum="1.00" meanIntervalHaltingDuration="1.00" maxIntervalHaltingDuration="1.00" intervalHaltingDurationSum="1.00" startedHalts="1.00" meanVehicleNumber="4.00" maxVehicleNumber="4" />
   <interval begin="18.00" end="19.00" id="queue_detector_edge1" sampledSeconds="3.40" nVehEntered="0" nVehLeft="1" nVehSeen="4" meanSpeed="8.29" meanTimeLoss="0.33" meanOccupancy="15.00" maxOccupancy="15.00" meanMaxJamLengthInVehicles="0.00" meanMaxJamLengthInMeters="0.00" maxJamLengthInVehicles="0" maxJamLengthInMeters="0.00" jamLengthInVehiclesSum="0" jamLengthInMetersSum="0.00" meanHaltingDuration="1.00" maxHaltingDuration="1.00" haltingDurationSum="1.00" meanIntervalHaltingDuration="0.00" maxIntervalHaltingDuration="0.00" intervalHaltingDurationSum="0.00" startedHalts="0.00" meanVehicleNumber="4.00" maxVehicleNumber="4" />
   <interval begin="19.00" end="20.00" id="queue_detector_edge1" sampledSeconds="3.00" nVehEntered="0" nVehLeft="0" nVehSeen="3" meanSpeed="8.79" meanTimeLoss="0.35" meanOccupancy="15.00" maxOccupancy="15.00" meanMaxJamLengthInVehicles="0.00" meanMaxJamLengthInMeters="0.00" maxJamLengthInVehicles="0" maxJamLengthInMeters="0.00" jamLengthInVehiclesSum="0" jamLengthInMetersSum="0.00" meanHaltingDuration="0.00" maxHaltingDuration="0.00" haltingDurationSum="0.00" meanIntervalHaltingDuration="0.00" maxIntervalHaltingDuration="0.00" intervalHaltingDurationSum="0.00" startedHalts="0.00" meanVehicleNumber="3.00" maxVehicleNumber="3" />
   <interval begin="20.00" end="21.00" id="queue_detector_edge1" sampledSeconds="4.00" nVehEntered="1" nVehLeft="0" nVehSeen="4" meanSpeed="7.36" meanTimeLoss="0.45" meanOccupancy="20.00" maxOccupancy="20.00" meanMaxJamLengthInVehicles="0.00" meanMaxJamLengthInMeters="0.00" maxJamLengthInVehicles="0" maxJamLengthInMeters="0.00" jamLengthInVehiclesSum="0" jamLengthInMetersSum="0.00" meanHaltingDuration="1.00" maxHaltingDuration="1.00" haltingDurationSum="1.00" meanIntervalHaltingDuration="1.00" maxIntervalHaltingDuration="1.00" intervalHaltingDurationSum="1.00" startedHalts="1.00" meanVehicleNumber="4.00" maxVehicleNumber="4" />
   <interval begin="21.00" end="22.00" id="queue_detector_edge1" sampledSeconds="4.00" nVehEntered="0" nVehLeft="0" nVehSeen="4" meanSpeed="8.78" meanTimeLoss="0.34" meanOccupancy="15.44" maxOccupancy="15.44" meanMaxJamLengthInVehicles="0.00" meanMaxJamLengthInMeters="0.00" maxJamLengthInVehicles="0" maxJamLengthInMeters="0.00" jamLengthInVehiclesSum="0" jamLengthInMetersSum="0.00" meanHaltingDuration="1.00" maxHaltingDuration="1.00" haltingDurationSum="1.00" meanIntervalHaltingDuration="0.00" maxIntervalHaltingDuration="0.00" intervalHaltingDurationSum="0.00" startedHalts="0.00" meanVehicleNumber="4.00" maxVehicleNumber="4" />
   <interval begin="22.00" end="23.00" id="queue_detector_edge1" sampledSeconds="3.03" nVehEntered="0" nVehLeft="1" nVehSeen="4" meanSpeed="8.53" meanTimeLoss="0.26" meanOccupancy="15.00" maxOccupancy="15.00" meanMaxJamLengthInVehicles="0.00" meanMaxJamLengthInMeters="0.00" maxJamLengthInVehicles="0" maxJamLengthInMeters="0.00" jamLengthInVehiclesSum="0" jamLengthInMetersSum="0.00" meanHaltingDuration="0.00" maxHaltingDuration="0.00" haltingDurationSum="0.00" meanIntervalHaltingDuration="0.00" maxIntervalHaltingDuration="0.00" intervalHaltingDurationSum="0.00" startedHalts="0.00" meanVehicleNumber="4.00" maxVehicleNumber="4" />
   <interval begin="23.00" end="24.00" id="queue_detector_edge1" sampledSeconds="3.00" nVehEntered="0" nVehLeft="0" nVehSeen="3" meanSpeed="9.40" meanTimeLoss="0.28" meanOccupancy="15.00" maxOccupancy="15.00" meanMaxJamLengthInVehicles="0.00" meanMaxJamLengthInMeters="0.00" maxJamLengthInVehicles="0" maxJamLengthInMeters="0.00" jamLengthInVehiclesSum="0" jamLengthInMetersSum="0.00" meanHaltingDuration="0.00" maxHaltingDuration="0.00" haltingDurationSum="0.00" meanIntervalHaltingDuration="0.00" maxIntervalHaltingDuration="0.00" intervalHaltingDurationSum="0.00" startedHalts="0.00" meanVehicleNumber="3.00" maxVehicleNumber="3" />
   <interval begin="24.00" end="25.00" id="queue_detector_edge1" sampledSeconds="4.00" nVehEntered="1" nVehLeft="0" nVehSeen="4" meanSpeed="8.16" meanTimeLoss="0.37" meanOccupancy="19.63" maxOccupancy="19.63" meanMaxJamLengthInVehicles="0.00" meanMaxJamLengthInMeters="0.00" maxJamLengthInVehicles="0" maxJamLengthInMeters="0.00" jamLengthInVehiclesSum="0" jamLengthInMetersSum="0.00" meanHaltingDuration="1.00" maxHaltingDuration="1.00" haltingDurationSum="1.00" meanIntervalHaltingDuration="1.00" maxIntervalHaltingDuration="1.00" intervalHaltingDurationSum="1.00" startedHalts="1.00" meanVehicleNumber="4.00" maxVehicleNumber="4" />
   <interval begin="25.00" end="26.00" id="queue_detector_edge1" sampledSeconds="3.34" nVehEntered="0" nVehLeft="1" nVehSeen="4" meanSpeed="7.63" meanTimeLoss="0.33" meanOccupancy="15.00" maxOccupancy="15.00" meanMaxJamLengthInVehicles="0.00" meanMaxJamLengthInMeters="0.00" maxJamLengthInVehicles="0" maxJamLengthInMeters="0.00" jamLengthInVehiclesSum="0" jamLengthInMetersSum="0.00" meanHaltingDuration="1.00" maxHaltingDuration="1.00" haltingDurationSum="1.00" meanIntervalHaltingDuration="0.00" maxIntervalHaltingDuration="0.00" intervalHaltingDurationSum="0.00" startedHalts="0.00" meanVehicleNumber="4.00" maxVehicleNumber="4" />
   <interval begin="26.00" end="27.00" id="queue_detector_edge1" sampledSeconds="3.00" nVehEntered="0" nVehLeft="0" nVehSeen="3" meanSpeed="8.22" meanTimeLoss="0.34" meanOccupancy="15.00" maxOccupancy="15.00" meanMaxJamLengthInVehicles="0.00" meanMaxJamLengthInMeters="0.00" maxJamLengthInVehicles="0" maxJamLengthInMeters="0.00" jamLengthInVehiclesSum="0" jamLengthInMetersSum="0.00" meanHaltingDuration="0.00" maxHaltingDuration="0.00" haltingDurationSum="0.00" meanIntervalHaltingDuration="0.00" maxIntervalHaltingDuration="0.00" intervalHaltingDurationSum="0.00" startedHalts="0.00" meanVehicleNumber="3.00" maxVehicleNumber="3" />
   <interval begin="27.00" end="28.00" id="queue_detector_edge1" sampledSeconds="4.00" nVehEntered="1" nVehLeft="0" nVehSeen="4" meanSpeed="6.91" meanTimeLoss="0.45" meanOccupancy="20.00" maxOccupancy="20.00" meanMaxJamLengthInVehicles="0.00" meanMaxJamLengthInMeters="0.00" maxJamLengthInVehicles="0" maxJamLengthInMeters="0.00" jamLengthInVehiclesSum="0" jamLengthInMetersSum="0.00" meanHaltingDuration="1.00" maxHaltingDuration="1.00" haltingDurationSum="1.00" meanIntervalHaltingDuration="1.00" maxIntervalHaltingDuration="1.00" intervalHaltingDurationSum="1.00" startedHalts="1.00" meanVehicleNumber="4.00" maxVehicleNumber="4" />
   <interval begin="28.00" end="29.00" id="queue_detector_edge1" sampledSeconds="4.00" nVehEntered="0" nVehLeft="0" nVehSeen="4" meanSpeed="7.90" meanTimeLoss="0.37" meanOccupancy="20.00" maxOccupancy="20.00" meanMaxJamLengthInVehicles="1.00" meanMaxJamLengthInMeters="5.00" maxJamLengthInVehicles="1" maxJamLengthInMeters="5.00" jamLengthInVehiclesSum="1" jamLengthInMetersSum="5.00" meanHaltingDuration="2.00" maxHaltingDuration="2.00" haltingDurationSum="2.00" meanIntervalHaltingDuration="1.00" maxIntervalHaltingDuration="1.00" intervalHaltingDurationSum="1.00" startedHalts="0.00" meanVehicleNumber="4.00" maxVehicleNumber="4" />
   <interval begin="29.00" end="30.00" id="queue_detector_edge1" sampledSeconds="3.62" nVehEntered="0" nVehLeft="1" nVehSeen="4" meanSpeed="8.60" meanTimeLoss="0.30" meanOccupancy="15.00" maxOccupancy="15.00" meanMaxJamLengthInVehicles="0.00" meanMaxJamLengthInMeters="0.00" maxJamLengthInVehicles="0" maxJamLengthInMeters="0.00" jamLengthInVehiclesSum="0" jamLengthInMetersSum="0.00" meanHaltingDuration="2.00" maxHaltingDuration="2.00" haltingDurationSum="2.00" meanIntervalHaltingDuration="0.00" maxIntervalHaltingDuration="0.00" intervalHaltingDurationSum="0.00" startedHalts="0.00" meanVehicleNumber="4.00" maxVehicleNumber="4" />
   <interval begin="30.00" end="31.00" id="queue_detector_edge1" sampledSeconds="3.00" nVehEntered="0" nVehLeft="0" nVehSeen="3" meanSpeed="9.10" meanTimeLoss="0.31" meanOccupancy="15.00" maxOccupancy="15.00" meanMaxJamLengthInVehicles="0.00" meanMaxJamLengthInMeters="0.00" maxJamLengthInVehicles="0" maxJamLengthInMeters="0.00" jamLengthInVehiclesSum="0" jamLengthInMetersSum="0.00" meanHaltingDuration="0.00" maxHaltingDuration="0.00" haltingDurationSum="0.00" meanIntervalHaltingDuration="0.00" maxIntervalHaltingDuration="0.00" intervalHaltingDurationSum="0.00" startedHalts="0.00" meanVehicleNumber="3.00" maxVehicleNumber="3" />
   <interval begin="31.00" end="32.00" id="queue_detector_edge1" sampledSeconds="4.00" nVehEntered="1" nVehLeft="0" nVehSeen="4" meanSpeed="7.49" meanTimeLoss="0.43" meanOccupancy="16.12" maxOccupancy="16.12" meanMaxJamLengthInVehicles="0.00" meanMaxJamLengthInMeters="0.00" maxJamLengthInVehicles="0" maxJamLengthInMeters="0.00" jamLengthInVehiclesSum="0" jamLengthInMetersSum="0.00" meanHaltingDuration="1.00" maxHaltingDuration="1.00" haltingDurationSum="1.00" meanIntervalHaltingDuration="1.00" maxIntervalHaltingDuration="1.00" intervalHaltingDurationSum="1.00" startedHalts="1.00" meanVehicleNumber="4.00" maxVehicleNumber="4" />
   <interval begin="32.00" end="33.00" id="queue_detector_edge1" sampledSeconds="3.08" nVehEntered="0" nVehLeft="1" nVehSeen="4" meanSpeed="7.28" meanTimeLoss="0.32" meanOccupancy="15.00" maxOccupancy="15.00" meanMaxJamLengthInVehicles="0.00" meanMaxJamLengthInMeters="0.00" maxJamLengthInVehicles="0" maxJamLengthInMeters="0.00" jamLengthInVehiclesSum="0" jamLengthInMetersSum="0.00" meanHaltingDuration="1.00" maxHaltingDuration="1.00" haltingDurationSum="1.00" meanIntervalHaltingDuration="0.00" maxIntervalHaltingDuration="0.00" intervalHaltingDurationSum="0.00" startedHalts="0.00" meanVehicleNumber="4.00" maxVehicleNumber="4" />
   <interval begin="33.00" end="34.00" id="queue_detector_edge1" sampledSeconds="3.00" nVehEntered="0" nVehLeft="0" nVehSeen="3" meanSpeed="8.04" meanTimeLoss="0.36" meanOccupancy="15.00" maxOccupancy="15.00" meanMaxJamLengthInVehicles="0.00" meanMaxJamLengthInMeters="0.00" maxJamLengthInVehicles="0" maxJamLengthInMeters="0.00" jamLengthInVehiclesSum="0" jamLengthInMetersSum="0.00" meanHaltingDuration="0.00" maxHaltingDuration="0.00" haltingDurationSum="0.00" meanIntervalHaltingDuration="0.00" maxIntervalHaltingDuration="0.00" intervalHaltingDurationSum="0.00" startedHalts="0.00" meanVehicleNumber="3.00" maxVehicleNumber="3" />
   <interval begin="34.00" end="35.00" id="queue_detector_edge1" sampledSeconds="3.00" nVehEntered="0" nVehLeft="0" nVehSeen="3" meanSpeed="8.98" meanTimeLoss="0.28" meanOccupancy="15.00" maxOccupancy="15.00" meanMaxJamLengthInVehicles="0.00" meanMaxJamLengthInMeters="0.00" maxJamLengthInVehicles="0" maxJamLengthInMeters="0.00" jamLengthInVehiclesSum="0" jamLengthInMetersSum="0.00" meanHaltingDuration="0.00" maxHaltingDuration="0.00" haltingDurationSum="0.00" meanIntervalHaltingDuration="0.00" maxIntervalHaltingDuration="0.00" intervalHaltingDurationSum="0.00" startedHalts="0.00" meanVehicleNumber="3.00" maxVehicleNumber="3" />
   <interval begin="35.00" end="36.00" id="queue_detector_edge1" sampledSeconds="4.00" nVehEntered="1" nVehLeft="0" nVehSeen="4" meanSpeed="8.09" meanTimeLoss="0.36" meanOccupancy="17.59" maxOccupancy="17.59" meanMaxJamLengthInVehicles="0.00" meanMaxJamLengthInMeters="0.00" maxJamLengthInVehicles="0" maxJamLengthInMeters="0.00" jamLengthInVehiclesSum="0" jamLengthInMetersSum="0.00" meanHaltingDuration="0.00" maxHaltingDuration="0.00" haltingDurationSum="0.00" meanIntervalHaltingDuration="0.00" maxIntervalHaltingDuration="0.00" intervalHaltingDurationSum="0.00" startedHalts="0.00" meanVehicleNumber="4.00" maxVehicleNumber="4" />
   <interval begin="36.00" end="37.00" id="queue_detector_edge1" sampledSeconds="3.22" nVehEntered="0" nVehLeft="1" nVehSeen="4" meanSpeed="8.34" meanTimeLoss="0.28" meanOccupancy="15.00" maxOccupancy="15.00" meanMaxJamLengthInVehicles="0.00" meanMaxJamLengthInMeters="0.00" maxJamLengthInVehicles="0" maxJamLengthInMeters="0.00" jamLengthInVehiclesSum="0" jamLengthInMetersSum="0.00" meanHaltingDuration="0.00" maxHaltingDuration="0.00" haltingDurationSum="0.00" meanIntervalHaltingDuration="0.00" maxIntervalHaltingDuration="0.00" intervalHaltingDurationSum="0.00" startedHalts="0.00" meanVehicleNumber="4.00" maxVehicleNumber="4" />
   <interval begin="37.00" end="38.00" id="queue_detector_edge1" sampledSeconds="3.00" nVehEntered="0" nVehLeft="0" nVehSeen="3" meanSpeed="9.26" meanTimeLoss="0.27" meanOccupancy="15.00" maxOccupancy="15.00" meanMaxJamLengthInVehicles="0.00" meanMaxJamLengthInMeters="0.00" maxJamLengthInVehicles="0" maxJamLengthInMeters="0.00" jamLengthInVehiclesSum="0" jamLengthInMetersSum="0.00" meanHaltingDuration="0.00" maxHaltingDuration="0.00" haltingDurationSum="0.00" meanIntervalHaltingDuration="0.00" maxIntervalHaltingDuration="0.00" intervalHaltingDurationSum="0.00" startedHalts="0.00" meanVehicleNumber="3.00" maxVehicleNumber="3" />
   <interval begin="38.00" end="39.00" id="queue_detector_edge1" sampledSeconds="4.00" nVehEntered="1" nVehLeft="0" nVehSeen="4" meanSpeed="8.32" meanTimeLoss="0.35" meanOccupancy="20.00" maxOccupancy="20.00" meanMaxJamLengthInVehicles="0.00" meanMaxJamLengthInMeters="0.00" maxJamLengthInVehicles="0" maxJamLengthInMeters="0.00" jamLengthInVehiclesSum="0" jamLengthInMetersSum="0.00" meanHaltingDuration="0.00" maxHaltingDuration="0.00" haltingDurationSum="0.00" meanIntervalHaltingDuration="0.00" maxIntervalHaltingDuration="0.00" intervalHaltingDurationSum="0.00" startedHalts="0.00" meanVehicleNumber="4.00" maxVehicleNumber="4" />
   <interval begin="39.00" end="40.00" id="queue_detector_edge1" sampledSeconds="3.76" nVehEntered="0" nVehLeft="1" nVehSeen="4" meanSpeed="8.96" meanTimeLoss="0.29" meanOccupancy="15.00" maxOccupancy="15.00" meanMaxJamLengthInVehicles="0.00" meanMaxJamLengthInMeters="0.00" maxJamLengthInVehicles="0" maxJamLengthInMeters="0.00" jamLengthInVehiclesSum="0" jamLengthInMetersSum="0.00" meanHaltingDuration="0.00" maxHaltingDuration="0.00" haltingDurationSum="0.00" meanIntervalHaltingDuration="0.00" maxIntervalHaltingDuration="0.00" intervalHaltingDurationSum="0.00" startedHalts="0.00" meanVehicleNumber="4.00" maxVehicleNumber="4" />
   <interval begin="40.00" end="41.00" id="queue_detector_edge1" sampledSeconds="3.00" nVehEntered="0" nVehLeft="0" nVehSeen="3" meanSpeed="8.80" meanTimeLoss="0.32" meanOccupancy="15.00" maxOccupancy="15.00" meanMaxJamLengthInVehicles="0.00" meanMaxJamLengthInMeters="0.00" maxJamLengthInVehicles="0" maxJamLengthInMeters="0.00" jamLengthInVehiclesSum="0" jamLengthInMetersSum="0.00" meanHaltingDuration="0.00" maxHaltingDuration="0.00" haltingDurationSum="0.00" meanIntervalHaltingDuration="0.00" maxIntervalHaltingDuration="0.00" intervalHaltingDurationSum="0.00" startedHalts="0.00" meanVehicleNumber="3.00" maxVehicleNumber="3" />
   <interval begin="41.00" end="42.00" id="queue_detector_edge1" sampledSeconds="4.00" nVehEntered="1" nVehLeft="0" nVehSeen="4" meanSpeed="7.55" meanTimeLoss="0.42" meanOccupancy="20.00" maxOccupancy="20.00" meanMaxJamLengthInVehicles="0.00" meanMaxJamLengthInMeters="0.00" maxJamLengthInVehicles="0" maxJamLengthInMeters="0.00" jamLengthInVehiclesSum="0" jamLengthInMetersSum="0.00" meanHaltingDuration="1.00" maxHaltingDuration="1.00" haltingDurationSum="1.00" meanIntervalHaltingDuration="1.00" maxIntervalHaltingDuration="1.00" intervalHaltingDurationSum="1.00" startedHalts="1.00" meanVehicleNumber="4.00" maxVehicleNumber="4" />
   <interval begin="42.00" end="43.00" id="queue_detector_edge1" sampledSeconds="4.00" nVehEntered="0" nVehLeft="0" nVehSeen="4" meanSpeed="8.65" meanTimeLoss="0.34" meanOccupancy="20.00" maxOccupancy="20.00" meanMaxJamLengthInVehicles="0.00" meanMaxJamLengthInMeters="0.00" maxJamLengthInVehicles="0" maxJamLengthInMeters="0.00" jamLengthInVehiclesSum="0" jamLengthInMetersSum="0.00" meanHaltingDuration="1.00" maxHaltingDuration="1.00" haltingDurationSum="1.00" meanIntervalHaltingDuration="0.00" maxIntervalHaltingDuration="0.00" intervalHaltingDurationSum="0.00" startedHalts="0.00" meanVehicleNumber="4.00" maxVehicleNumber="4" />
   <interval begin="43.00" end="44.00" id="queue_detector_edge1" sampledSeconds="3.60" nVehEntered="0" nVehLeft="1" nVehSeen="4" meanSpeed="9.52" meanTimeLoss="0.26" meanOccupancy="15.00" maxOccupancy="15.00" meanMaxJamLengthInVehicles="0.00" meanMaxJamLengthInMeters="0.00" maxJamLengthInVehicles="0" maxJamLengthInMeters="0.00" jamLengthInVehiclesSum="0" jamLengthInMetersSum="0.00" meanHaltingDuration="0.00" maxHaltingDuration="0.00" haltingDurationSum="0.00" meanIntervalHaltingDuration="0.00" maxIntervalHaltingDuration="0.00" intervalHaltingDurationSum="0.00" startedHalts="0.00" meanVehicleNumber="4.00" maxVehicleNumber="4" />
   <interval begin="44.00" end="45.00" id="queue_detector_edge1" sampledSeconds="4.00" nVehEntered="1" nVehLeft="0" nVehSeen="4" meanSpeed="7.62" meanTimeLoss="0.45" meanOccupancy="20.00" maxOccupancy="20.00" meanMaxJamLengthInVehicles="0.00" meanMaxJamLengthInMeters="0.00" maxJamLengthInVehicles="0" maxJamLengthInMeters="0.00" jamLengthInVehiclesSum="0" jamLengthInMetersSum="0.00" meanHaltingDuration="1.00" maxHaltingDuration="1.00" haltingDurationSum="1.00" meanIntervalHaltingDuration="1.00" maxIntervalHaltingDuration="1.00" intervalHaltingDurationSum="1.00" startedHalts="1.00" meanVehicleNumber="4.00" maxVehicleNumber="4" />