<?xml version="1.0" encoding="UTF-8"?>

<!-- generated on 2025-04-19 21:51:02 by Eclipse SUMO sumo Version 1.22.0
<sumoConfiguration xmlns:xsi="http://www.w3.org/2001/XMLSchema-instance" xsi:noNamespaceSchemaLocation="http://sumo.dlr.de/xsd/sumoConfiguration.xsd">

    <input>
        <net-file value="region.net.xml"/>
        <route-files value="region.rou.xml"/>
        <additional-files value="region.add.xml"/>
    </input>

    <output>
        <emission-output value="emissions.xml"/>
    </output>

    <time>
        <begin value="0"/>
        <end value="360"/>
    </time>

</sumoConfiguration>
-->

<emission-export xmlns:xsi="http://www.w3.org/2001/XMLSchema-instance" xsi:noNamespaceSchemaLocation="http://sumo.dlr.de/xsd/emission_file.xsd">
    <timestep time="0.00">
        <vehicle id="f1.0" eclass="HBEFA3/PC_G_EU4" CO2="2624.72" CO="164.78" HC="0.81" NOx="1.20" PMx="0.07" fuel="837.22" electricity="0.00" noise="55.94" route="!f1" type="car" waiting="0.00" lane="edge1_0" pos="5.10" speed="0.00" angle="90.00" x="5.10" y="-1.60"/>
    </timestep>
    <timestep time="1.00">
        <vehicle id="f1.0" eclass="HBEFA3/PC_G_EU4" CO2="4097.93" CO="152.03" HC="0.79" NOx="1.83" PMx="0.09" fuel="1307.09" electricity="0.00" noise="68.37" route="!f1" type="car" waiting="0.00" lane="edge1_0" pos="7.70" speed="2.60" angle="90.00" x="7.70" y="-1.60"/>
    </timestep>
    <timestep time="2.00">
        <vehicle id="f1.0" eclass="HBEFA3/PC_G_EU4" CO2="4925.05" CO="137.04" HC="0.74" NOx="2.16" PMx="0.10" fuel="1570.88" electricity="0.00" noise="67.52" route="!f1" type="car" waiting="0.00" lane="edge1_0" pos="12.49" speed="4.79" angle="90.00" x="12.49" y="-1.60"/>
    </timestep>
    <timestep time="3.00">
        <vehicle id="f1.0" eclass="HBEFA3/PC_G_EU4" CO2="4953.24" CO="115.79" HC="0.64" NOx="2.13" PMx="0.10" fuel="1579.87" electricity="0.00" noise="66.07" route="!f1" type="car" waiting="0.00" lane="edge1_0" pos="18.96" speed="6.47" angle="90.00" x="18.96" y="-1.60"/>
        <vehicle id="f1.1" eclass="HBEFA3/PC_G_EU4" CO2="2624.72" CO="164.78" HC="0.81" NOx="1.20" PMx="0.07" fuel="837.22" electricity="0.00" noise="55.94" route="!f1" type="car" waiting="0.00" lane="edge1_0" pos="5.10" speed="0.00" angle="90.00" x="5.10" y="-1.60"/>
    </timestep>
    <timestep time="4.00">
        <vehicle id="f1.0" eclass="HBEFA3/PC_G_EU4" CO2="5828.38" CO="113.68" HC="0.66" NOx="2.49" PMx="0.11" fuel="1858.99" electricity="0.00" noise="67.18" route="!f1" type="car" waiting="0.00" lane="edge1_0" pos="27.18" speed="8.22" angle="90.00" x="27.18" y="-1.60"/>
        <vehicle id="f1.1" eclass="HBEFA3/PC_G_EU4" CO2="3189.95" CO="147.37" HC="0.75" NOx="1.42" PMx="0.07" fuel="1017.49" electricity="0.00" noise="64.13" route="!f1" type="car" waiting="0.00" lane="edge1_0" pos="6.81" speed="1.71" angle="90.00" x="6.81" y="-1.60"/>
    </timestep>
    <timestep time="5.00">
        <vehicle id="f1.0" eclass="HBEFA3/PC_G_EU4" CO2="5523.65" CO="93.39" HC="0.56" NOx="2.32" PMx="0.10" fuel="1761.79" electricity="0.00" noise="66.34" route="!f1" type="car" waiting="0.00" lane="edge1_0" pos="36.77" speed="9.59" angle="90.00" x="36.77" y="-1.60"/>
        <vehicle id="f1.1" eclass="HBEFA3/PC_G_EU4" CO2="4496.90" CO="140.41" HC="0.75" NOx="1.98" PMx="0.10" fuel="1434.33" electricity="0.00" noise="67.22" route="!f1" type="car" waiting="0.00" lane="edge1_0" pos="10.74" speed="3.92" angle="90.00" x="10.74" y="-1.60"/>
    </timestep>
    <timestep time="6.00">
        <vehicle id="f1.0" eclass="HBEFA3/PC_G_EU4" CO2="6784.41" CO="105.05" HC="0.64" NOx="2.87" PMx="0.13" fuel="2163.90" electricity="0.00" noise="68.05" route="!f1" type="car" waiting="0.00" lane="edge1_0" pos="47.95" speed="11.18" angle="90.00" x="47.95" y="-1.60"/>
        <vehicle id="f1.1" eclass="HBEFA3/PC_G_EU4" CO2="6301.37" CO="144.18" HC="0.81" NOx="2.77" PMx="0.13" fuel="2009.85" electricity="0.00" noise="69.56" route="!f1" type="car" waiting="0.00" lane="edge1_0" pos="17.16" speed="6.42" angle="90.00" x="17.16" y="-1.60"/>
        <vehicle id="f1.2" eclass="HBEFA3/PC_G_EU4" CO2="2624.72" CO="164.78" HC="0.81" NOx="1.20" PMx="0.07" fuel="837.22" electricity="0.00" noise="55.94" route="!f1" type="car" waiting="0.00" lane="edge1_0" pos="5.10" speed="0.00" angle="90.00" x="5.10" y="-1.60"/>
    </timestep>
    <timestep time="7.00">
        <vehicle id="f1.0" eclass="HBEFA3/PC_G_EU4" CO2="8043.06" CO="117.86" HC="0.73" NOx="3.42" PMx="0.16" fuel="2565.34" electricity="0.00" noise="69.47" route="!f1" type="car" waiting="0.00" lane="edge1_0" pos="60.85" speed="12.90" angle="90.00" x="60.85" y="-1.60"/>
        <vehicle id="f1.1" eclass="HBEFA3/PC_G_EU4" CO2="6518.90" CO="125.56" HC="0.73" NOx="2.82" PMx="0.13" fuel="2079.22" electricity="0.00" noise="68.41" route="!f1" type="car" waiting="0.00" lane="edge1_0" pos="25.60" speed="8.44" angle="90.00" x="25.60" y="-1.60"/>
        <vehicle id="f1.2" eclass="HBEFA3/PC_G_EU4" CO2="3099.42" CO="147.45" HC="0.74" NOx="1.38" PMx="0.07" fuel="988.62" electricity="0.00" noise="63.56" route="!f1" type="car" waiting="0.00" lane="edge1_0" pos="6.69" speed="1.59" angle="90.00" x="6.69" y="-1.60"/>
    </timestep>
    <timestep time="8.00">
        <vehicle id="f1.0" eclass="HBEFA3/PC_G_EU4" CO2="7804.54" CO="103.82" HC="0.66" NOx="3.27" PMx="0.15" fuel="2489.26" electricity="0.00" noise="69.23" route="!f1" type="car" waiting="0.00" lane="edge1_0" pos="75.19" speed="14.35" angle="90.00" x="75.19" y="-1.60"/>
        <vehicle id="f1.1" eclass="HBEFA3/PC_G_EU4" CO2="6087.93" CO="101.40" HC="0.61" NOx="2.57" PMx="0.12" fuel="1941.76" electricity="0.00" noise="67.19" route="!f1" type="car" waiting="0.00" lane="edge1_0" pos="35.56" speed="9.97" angle="90.00" x="35.56" y="-1.60"/>
        <vehicle id="f1.2" eclass="HBEFA3/PC_G_EU4" CO2="4126.54" CO="137.65" HC="0.72" NOx="1.81" PMx="0.09" fuel="1316.20" electricity="0.00" noise="66.14" route="!f1" type="car" waiting="0.00" lane="edge1_0" pos="10.28" speed="3.59" angle="90.00" x="10.28" y="-1.60"/>
    </timestep>
    <timestep time="9.00">
        <vehicle id="f1.0" eclass="HBEFA3/PC_G_EU4" CO2="0.00" CO="0.00" HC="0.00" NOx="0.00" PMx="0.00" fuel="0.00" electricity="0.00" noise="63.48" route="!f1" type="car" waiting="0.00" lane="edge1_0" pos="89.03" speed="13.84" angle="90.00" x="89.03" y="-1.60"/>
        <vehicle id="f1.1" eclass="HBEFA3/PC_G_EU4" CO2="8994.88" CO="143.09" HC="0.87" NOx="3.89" PMx="0.19" fuel="2868.92" electricity="0.00" noise="70.77" route="!f1" type="car" waiting="0.00" lane="edge1_0" pos="47.68" speed="12.12" angle="90.00" x="47.68" y="-1.60"/>
        <vehicle id="f1.2" eclass="HBEFA3/PC_G_EU4" CO2="4891.54" CO="126.85" HC="0.69" NOx="2.12" PMx="0.10" fuel="1560.19" electricity="0.00" noise="66.61" route="!f1" type="car" waiting="0.00" lane="edge1_0" pos="15.78" speed="5.50" angle="90.00" x="15.78" y="-1.60"/>
        <vehicle id="f1.3" eclass="HBEFA3/PC_G_EU4" CO2="2624.72" CO="164.78" HC="0.81" NOx="1.20" PMx="0.07" fuel="837.22" electricity="0.00" noise="55.94" route="!f1" type="car" waiting="0.00" lane="edge1_0" pos="5.10" speed="0.00" angle="90.00" x="5.10" y="-1.60"/>
    </timestep>
    <timestep time="10.00">
        <vehicle id="f1.0" eclass="HBEFA3/PC_G_EU4" CO2="1701.83" CO="0.00" HC="0.00" NOx="0.41" PMx="0.00" fuel="542.82" electricity="0.00" noise="64.02" route="!f1" type="car" waiting="0.00" lane="edge2_0" pos="2.59" speed="13.66" angle="90.00" x="102.59" y="-1.60"/>
        <vehicle id="f1.1" eclass="HBEFA3/PC_G_EU4" CO2="2979.10" CO="17.48" HC="0.15" NOx="1.04" PMx="0.03" fuel="950.21" electricity="0.00" noise="64.11" route="!f1" type="car" waiting="0.00" lane="edge1_0" pos="60.03" speed="12.35" angle="90.00" x="60.03" y="-1.60"/>
        <vehicle id="f1.2" eclass="HBEFA3/PC_G_EU4" CO2="7250.42" CO="145.55" HC="0.84" NOx="3.17" PMx="0.15" fuel="2312.54" electricity="0.00" noise="70.18" route="!f1" type="car" waiting="0.00" lane="edge1_0" pos="23.76" speed="7.98" angle="90.00" x="23.76" y="-1.60"/>
        <vehicle id="f1.3" eclass="HBEFA3/PC_G_EU4" CO2="3173.90" CO="147.37" HC="0.75" NOx="1.42" PMx="0.07" fuel="1012.37" electricity="0.00" noise="64.03" route="!f1" type="car" waiting="0.00" lane="edge1_0" pos="6.79" speed="1.69" angle="90.00" x="6.79" y="-1.60"/>
    </timestep>
    <timestep time="11.00">
        <vehicle id="f1.0" eclass="HBEFA3/PC_G_EU4" CO2="3100.06" CO="9.76" HC="0.11" NOx="1.06" PMx="0.03" fuel="988.78" electricity="0.00" noise="65.07" route="!f1" type="car" waiting="0.00" lane="edge2_0" pos="16.47" speed="13.87" angle="90.00" x="116.47" y="-1.60"/>
        <vehicle id="f1.1" eclass="HBEFA3/PC_G_EU4" CO2="3546.22" CO="26.34" HC="0.20" NOx="1.30" PMx="0.04" fuel="1131.08" electricity="0.00" noise="64.81" route="!f1" type="car" waiting="0.00" lane="edge1_0" pos="72.78" speed="12.74" angle="90.00" x="72.78" y="-1.60"/>
        <vehicle id="f1.2" eclass="HBEFA3/PC_G_EU4" CO2="5408.31" CO="93.43" HC="0.55" NOx="2.27" PMx="0.10" fuel="1725.00" electricity="0.00" noise="66.18" route="!f1" type="car" waiting="0.00" lane="edge1_0" pos="33.11" speed="9.34" angle="90.00" x="33.11" y="-1.60"/>
        <vehicle id="f1.3" eclass="HBEFA3/PC_G_EU4" CO2="4717.31" CO="143.13" HC="0.76" NOx="2.08" PMx="0.10" fuel="1504.63" electricity="0.00" noise="67.92" route="!f1" type="car" waiting="0.00" lane="edge1_0" pos="10.84" speed="4.05" angle="90.00" x="10.84" y="-1.60"/>
    </timestep>
    <timestep time="12.00">
        <vehicle id="f1.0" eclass="HBEFA3/PC_G_EU4" CO2="2918.29" CO="5.08" HC="0.09" NOx="0.97" PMx="0.03" fuel="930.81" electricity="0.00" noise="65.04" route="!f1" type="car" waiting="0.00" lane="edge2_0" pos="30.50" speed="14.03" angle="90.00" x="130.50" y="-1.60"/>
        <vehicle id="f1.1" eclass="HBEFA3/PC_G_EU4" CO2="2600.31" CO="6.15" HC="0.09" NOx="0.85" PMx="0.02" fuel="829.39" electricity="0.00" noise="64.09" route="!f1" type="car" waiting="0.00" lane="edge1_0" pos="85.63" speed="12.85" angle="90.00" x="85.63" y="-1.60"/>
        <vehicle id="f1.2" eclass="HBEFA3/PC_G_EU4" CO2="9195.12" CO="150.82" HC="0.91" NOx="4.00" PMx="0.19" fuel="2932.79" electricity="0.00" noise="71.20" route="!f1" type="car" waiting="0.00" lane="edge1_0" pos="44.76" speed="11.65" angle="90.00" x="44.76" y="-1.60"/>
        <vehicle id="f1.3" eclass="HBEFA3/PC_G_EU4" CO2="6135.02" CO="140.50" HC="0.79" NOx="2.69" PMx="0.13" fuel="1956.79" electricity="0.00" noise="69.11" route="!f1" type="car" waiting="0.00" lane="edge1_0" pos="17.29" speed="6.44" angle="90.00" x="17.29" y="-1.60"/>
        <vehicle id="f1.4" eclass="HBEFA3/PC_G_EU4" CO2="2624.72" CO="164.78" HC="0.81" NOx="1.20" PMx="0.07" fuel="837.22" electricity="0.00" noise="55.94" route="!f1" type="car" waiting="0.00" lane="edge1_0" pos="5.10" speed="0.00" angle="90.00" x="5.10" y="-1.60"/>
    </timestep>
    <timestep time="13.00">
        <vehicle id="f1.0" eclass="HBEFA3/PC_G_EU4" CO2="3046.33" CO="6.63" HC="0.10" NOx="1.03" PMx="0.03" fuel="971.65" electricity="0.00" noise="65.23" route="!f1" type="car" waiting="0.00" lane="edge2_0" pos="44.71" speed="14.21" angle="90.00" x="144.71" y="-1.60"/>
        <vehicle id="f1.1" eclass="HBEFA3/PC_G_EU4" CO2="1356.51" CO="0.00" HC="0.00" NOx="0.27" PMx="0.00" fuel="432.68" electricity="0.00" noise="63.01" route="!f1" type="car" waiting="0.00" lane="edge1_0" pos="98.21" speed="12.58" angle="90.00" x="98.21" y="-1.60"/>
        <vehicle id="f1.2" eclass="HBEFA3/PC_G_EU4" CO2="7999.41" CO="114.26" HC="0.71" NOx="3.39" PMx="0.16" fuel="2551.42" electricity="0.00" noise="69.40" route="!f1" type="car" waiting="0.00" lane="edge1_0" pos="58.06" speed="13.30" angle="90.00" x="58.06" y="-1.60"/>
        <vehicle id="f1.3" eclass="HBEFA3/PC_G_EU4" CO2="7747.65" CO="146.18" HC="0.85" NOx="3.38" PMx="0.16" fuel="2471.13" electricity="0.00" noise="70.43" route="!f1" type="car" waiting="0.00" lane="edge1_0" pos="26.17" speed="8.89" angle="90.00" x="26.17" y="-1.60"/>
        <vehicle id="f1.4" eclass="HBEFA3/PC_G_EU4" CO2="3068.34" CO="147.53" HC="0.74" NOx="1.37" PMx="0.07" fuel="978.71" electricity="0.00" noise="63.35" route="!f1" type="car" waiting="0.00" lane="edge1_0" pos="6.65" speed="1.55" angle="90.00" x="6.65" y="-1.60"/>
    </timestep>
    <timestep time="14.00">
        <vehicle id="f1.0" eclass="HBEFA3/PC_G_EU4" CO2="0.00" CO="0.00" HC="0.00" NOx="0.00" PMx="0.00" fuel="0.00" electricity="0.00" noise="63.40" route="!f1" type="car" waiting="0.00" lane="edge2_0" pos="58.42" speed="13.71" angle="90.00" x="158.42" y="-1.60"/>
        <vehicle id="f1.1" eclass="HBEFA3/PC_G_EU4" CO2="2087.03" CO="0.00" HC="0.03" NOx="0.62" PMx="0.01" fuel="665.68" electricity="0.00" noise="63.50" route="!f1" type="car" waiting="0.00" lane="edge2_0" pos="10.64" speed="12.54" angle="90.00" x="110.64" y="-1.60"/>
        <vehicle id="f1.2" eclass="HBEFA3/PC_G_EU4" CO2="0.00" CO="0.00" HC="0.00" NOx="0.00" PMx="0.00" fuel="0.00" electricity="0.00" noise="63.11" route="!f1" type="car" waiting="0.00" lane="edge1_0" pos="71.00" speed="12.95" angle="90.00" x="71.00" y="-1.60"/>
        <vehicle id="f1.3" eclass="HBEFA3/PC_G_EU4" CO2="5712.11" CO="91.22" HC="0.55" NOx="2.39" PMx="0.11" fuel="1821.89" electricity="0.00" noise="66.60" route="!f1" type="car" waiting="0.00" lane="edge1_0" pos="36.40" speed="10.23" angle="90.00" x="36.40" y="-1.60"/>
        <vehicle id="f1.4" eclass="HBEFA3/PC_G_EU4" CO2="4035.33" CO="137.19" HC="0.72" NOx="1.77" PMx="0.09" fuel="1287.12" electricity="0.00" noise="65.86" route="!f1" type="car" waiting="0.00" lane="edge1_0" pos="10.14" speed="3.49" angle="90.00" x="10.14" y="-1.60"/>
    </timestep>
    <timestep time="15.00">
        <vehicle id="f1.0" eclass="HBEFA3/PC_G_EU4" CO2="2356.08" CO="0.00" HC="0.03" NOx="0.72" PMx="0.01" fuel="751.49" electricity="0.00" noise="64.47" route="!f1" type="car" waiting="0.00" lane="edge2_0" pos="72.13" speed="13.72" angle="90.00" x="172.13" y="-1.60"/>
        <vehicle id="f1.1" eclass="HBEFA3/PC_G_EU4" CO2="2180.59" CO="0.00" HC="0.05" NOx="0.66" PMx="0.01" fuel="695.52" electricity="0.00" noise="63.56" route="!f1" type="car" waiting="0.00" lane="edge2_0" pos="23.16" speed="12.52" angle="90.00" x="123.16" y="-1.60"/>
        <vehicle id="f1.2" eclass="HBEFA3/PC_G_EU4" CO2="5904.58" CO="67.16" HC="0.45" NOx="2.39" PMx="0.10" fuel="1883.28" electricity="0.00" noise="67.37" route="!f1" type="car" waiting="0.00" lane="edge1_0" pos="84.93" speed="13.93" angle="90.00" x="84.93" y="-1.60"/>
        <vehicle id="f1.3" eclass="HBEFA3/PC_G_EU4" CO2="9947.90" CO="159.28" HC="0.97" NOx="4.33" PMx="0.21" fuel="3172.88" electricity="0.00" noise="71.83" route="!f1" type="car" waiting="0.00" lane="edge1_0" pos="48.99" speed="12.58" angle="90.00" x="48.99" y="-1.60"/>
        <vehicle id="f1.4" eclass="HBEFA3/PC_G_EU4" CO2="4367.20" CO="120.89" HC="0.65" NOx="1.89" PMx="0.09" fuel="1392.96" electricity="0.00" noise="65.29" route="!f1" type="car" waiting="0.00" lane="edge1_0" pos="15.28" speed="5.14" angle="90.00" x="15.28" y="-1.60"/>
        <vehicle id="f1.5" eclass="HBEFA3/PC_G_EU4" CO2="2624.72" CO="164.78" HC="0.81" NOx="1.20" PMx="0.07" fuel="837.22" electricity="0.00" noise="55.94" route="!f1" type="car" waiting="0.00" lane="edge1_0" pos="5.10" speed="0.00" angle="90.00" x="5.10" y="-1.60"/>
    </timestep>
    <timestep time="16.00">
        <vehicle id="f1.0" eclass="HBEFA3/PC_G_EU4" CO2="2869.01" CO="5.06" HC="0.09" NOx="0.95" PMx="0.03" fuel="915.09" electricity="0.00" noise="64.90" route="!f1" type="car" waiting="0.00" lane="edge2_0" pos="86.00" speed="13.86" angle="90.00" x="186.00" y="-1.60"/>
        <vehicle id="f1.1" eclass="HBEFA3/PC_G_EU4" CO2="2225.87" CO="0.76" HC="0.05" NOx="0.68" PMx="0.01" fuel="709.96" electricity="0.00" noise="63.59" route="!f1" type="car" waiting="0.00" lane="edge2_0" pos="35.68" speed="12.52" angle="90.00" x="135.68" y="-1.60"/>
        <vehicle id="f1.2" eclass="HBEFA3/PC_G_EU4" CO2="0.00" CO="0.00" HC="0.00" NOx="0.00" PMx="0.00" fuel="0.00" electricity="0.00" noise="62.00" route="!f1" type="car" waiting="0.00" lane="edge1_0" pos="97.87" speed="12.93" angle="90.00" x="97.87" y="-1.60"/>
        <vehicle id="f1.3" eclass="HBEFA3/PC_G_EU4" CO2="8312.82" CO="115.19" HC="0.72" NOx="3.52" PMx="0.17" fuel="2651.38" electricity="0.00" noise="69.72" route="!f1" type="car" waiting="0.00" lane="edge1_0" pos="63.18" speed="14.19" angle="90.00" x="63.18" y="-1.60"/>
        <vehicle id="f1.4" eclass="HBEFA3/PC_G_EU4" CO2="4416.67" CO="104.47" HC="0.58" NOx="1.87" PMx="0.08" fuel="1408.73" electricity="0.00" noise="64.72" route="!f1" type="car" waiting="0.00" lane="edge1_0" pos="21.77" speed="6.50" angle="90.00" x="21.77" y="-1.60"/>
        <vehicle id="f1.5" eclass="HBEFA3/PC_G_EU4" CO2="3167.30" CO="147.38" HC="0.75" NOx="1.41" PMx="0.07" fuel="1010.27" electricity="0.00" noise="63.99" route="!f1" type="car" waiting="0.00" lane="edge1_0" pos="6.78" speed="1.68" angle="90.00" x="6.78" y="-1.60"/>
    </timestep>
    <timestep time="17.00">
        <vehicle id="f1.1" eclass="HBEFA3/PC_G_EU4" CO2="1838.26" CO="0.00" HC="0.01" NOx="0.50" PMx="0.00" fuel="586.34" electricity="0.00" noise="63.22" route="!f1" type="car" waiting="0.00" lane="edge2_0" pos="48.08" speed="12.40" angle="90.00" x="148.08" y="-1.60"/>
        <vehicle id="f1.2" eclass="HBEFA3/PC_G_EU4" CO2="3293.41" CO="17.86" HC="0.16" NOx="1.17" PMx="0.04" fuel="1050.45" electricity="0.00" noise="64.85" route="!f1" type="car" waiting="0.00" lane="edge2_0" pos="10.99" speed="13.22" angle="90.00" x="110.99" y="-1.60"/>
        <vehicle id="f1.3" eclass="HBEFA3/PC_G_EU4" CO2="4939.73" CO="42.14" HC="0.31" NOx="1.91" PMx="0.08" fuel="1575.54" electricity="0.00" noise="66.88" route="!f1" type="car" waiting="0.00" lane="edge1_0" pos="78.02" speed="14.84" angle="90.00" x="78.02" y="-1.60"/>
        <vehicle id="f1.4" eclass="HBEFA3/PC_G_EU4" CO2="6020.17" CO="116.64" HC="0.67" NOx="2.58" PMx="0.12" fuel="1920.16" electricity="0.00" noise="67.51" route="!f1" type="car" waiting="0.00" lane="edge1_0" pos="30.09" speed="8.31" angle="90.00" x="30.09" y="-1.60"/>
        <vehicle id="f1.5" eclass="HBEFA3/PC_G_EU4" CO2="4097.57" CO="136.46" HC="0.72" NOx="1.80" PMx="0.09" fuel="1306.97" electricity="0.00" noise="65.94" route="!f1" type="car" waiting="0.00" lane="edge1_0" pos="10.41" speed="3.63" angle="90.00" x="10.41" y="-1.60"/>
    </timestep>
    <timestep time="18.00">
        <vehicle id="f1.1" eclass="HBEFA3/PC_G_EU4" CO2="2080.29" CO="0.00" HC="0.04" NOx="0.62" PMx="0.01" fuel="663.53" electricity="0.00" noise="63.37" route="!f1" type="car" waiting="0.00" lane="edge2_0" pos="60.44" speed="12.36" angle="90.00" x="160.44" y="-1.60"/>
        <vehicle id="f1.2" eclass="HBEFA3/PC_G_EU4" CO2="2967.81" CO="9.90" HC="0.11" NOx="1.01" PMx="0.03" fuel="946.60" electricity="0.00" noise="64.71" route="!f1" type="car" waiting="0.00" lane="edge2_0" pos="24.41" speed="13.42" angle="90.00" x="124.41" y="-1.60"/>
        <vehicle id="f1.3" eclass="HBEFA3/PC_G_EU4" CO2="0.00" CO="0.00" HC="0.00" NOx="0.00" PMx="0.00" fuel="0.00" electricity="0.00" noise="63.25" route="!f1" type="car" waiting="0.00" lane="edge1_0" pos="92.09" speed="14.07" angle="90.00" x="92.09" y="-1.60"/>
        <vehicle id="f1.4" eclass="HBEFA3/PC_G_EU4" CO2="8852.85" CO="151.57" HC="0.90" NOx="3.86" PMx="0.19" fuel="2823.62" electricity="0.00" noise="71.14" route="!f1" type="car" waiting="0.00" lane="edge1_0" pos="40.80" speed="10.72" angle="90.00" x="40.80" y="-1.60"/>
        <vehicle id="f1.5" eclass="HBEFA3/PC_G_EU4" CO2="4962.93" CO="127.43" HC="0.70" NOx="2.16" PMx="0.10" fuel="1582.96" electricity="0.00" noise="66.76" route="!f1" type="car" waiting="0.00" lane="edge1_0" pos="15.98" speed="5.57" angle="90.00" x="15.98" y="-1.60"/>
        <vehicle id="f1.6" eclass="HBEFA3/PC_G_EU4" CO2="2624.72" CO="164.78" HC="0.81" NOx="1.20" PMx="0.07" fuel="837.22" electricity="0.00" noise="55.94" route="!f1" type="car" waiting="0.00" lane="edge1_0" pos="5.10" speed="0.00" angle="90.00" x="5.10" y="-1.60"/>
    </timestep>
    <timestep time="19.00">
        <vehicle id="f1.1" eclass="HBEFA3/PC_G_EU4" CO2="0.00" CO="0.00" HC="0.00" NOx="0.00" PMx="0.00" fuel="0.00" electricity="0.00" noise="61.90" route="!f1" type="car" waiting="0.00" lane="edge2_0" pos="72.28" speed="11.84" angle="90.00" x="172.28" y="-1.60"/>
        <vehicle id="f1.2" eclass="HBEFA3/PC_G_EU4" CO2="0.00" CO="0.00" HC="0.00" NOx="0.00" PMx="0.00" fuel="0.00" electricity="0.00" noise="62.39" route="!f1" type="car" waiting="0.00" lane="edge2_0" pos="37.17" speed="12.76" angle="90.00" x="137.17" y="-1.60"/>
        <vehicle id="f1.3" eclass="HBEFA3/PC_G_EU4" CO2="2962.05" CO="4.80" HC="0.09" NOx="0.99" PMx="0.03" fuel="944.77" electricity="0.00" noise="65.18" route="!f1" type="car" waiting="0.00" lane="edge2_0" pos="6.22" speed="14.23" angle="90.00" x="106.22" y="-1.60"/>
        <vehicle id="f1.4" eclass="HBEFA3/PC_G_EU4" CO2="9569.67" CO="149.33" HC="0.91" NOx="4.14" PMx="0.20" fuel="3052.25" electricity="0.00" noise="71.26" route="!f1" type="car" waiting="0.00" lane="edge1_0" pos="53.69" speed="12.89" angle="90.00" x="53.69" y="-1.60"/>
        <vehicle id="f1.5" eclass="HBEFA3/PC_G_EU4" CO2="5776.66" CO="121.03" HC="0.69" NOx="2.49" PMx="0.12" fuel="1842.49" electricity="0.00" noise="67.43" route="!f1" type="car" waiting="0.00" lane="edge1_0" pos="23.44" speed="7.46" angle="90.00" x="23.44" y="-1.60"/>
        <vehicle id="f1.6" eclass="HBEFA3/PC_G_EU4" CO2="3331.41" CO="147.54" HC="0.75" NOx="1.49" PMx="0.07" fuel="1062.61" electricity="0.00" noise="64.94" route="!f1" type="car" waiting="0.00" lane="edge1_0" pos="6.98" speed="1.88" angle="90.00" x="6.98" y="-1.60"/>
    </timestep>
    <timestep time="20.00">
        <vehicle id="f1.1" eclass="HBEFA3/PC_G_EU4" CO2="3711.58" CO="32.92" HC="0.24" NOx="1.39" PMx="0.05" fuel="1183.83" electricity="0.00" noise="64.74" route="!f1" type="car" waiting="0.00" lane="edge2_0" pos="84.58" speed="12.30" angle="90.00" x="184.58" y="-1.60"/>
        <vehicle id="f1.2" eclass="HBEFA3/PC_G_EU4" CO2="2242.31" CO="0.00" HC="0.05" NOx="0.69" PMx="0.01" fuel="715.21" electricity="0.00" noise="63.77" route="!f1" type="car" waiting="0.00" lane="edge2_0" pos="49.93" speed="12.76" angle="90.00" x="149.93" y="-1.60"/>
        <vehicle id="f1.3" eclass="HBEFA3/PC_G_EU4" CO2="2781.60" CO="0.47" HC="0.06" NOx="0.90" PMx="0.02" fuel="887.21" electricity="0.00" noise="65.13" route="!f1" type="car" waiting="0.00" lane="edge2_0" pos="20.56" speed="14.34" angle="90.00" x="120.56" y="-1.60"/>
        <vehicle id="f1.4" eclass="HBEFA3/PC_G_EU4" CO2="3225.47" CO="16.84" HC="0.15" NOx="1.14" PMx="0.04" fuel="1028.78" electricity="0.00" noise="64.77" route="!f1" type="car" waiting="0.00" lane="edge1_0" pos="66.86" speed="13.17" angle="90.00" x="66.86" y="-1.60"/>
        <vehicle id="f1.5" eclass="HBEFA3/PC_G_EU4" CO2="6235.29" CO="111.95" HC="0.66" NOx="2.66" PMx="0.12" fuel="1988.76" electricity="0.00" noise="67.59" route="!f1" type="car" waiting="0.00" lane="edge1_0" pos="32.64" speed="9.19" angle="90.00" x="32.64" y="-1.60"/>
        <vehicle id="f1.6" eclass="HBEFA3/PC_G_EU4" CO2="4244.39" CO="135.99" HC="0.72" NOx="1.86" PMx="0.09" fuel="1353.79" electricity="0.00" noise="66.22" route="!f1" type="car" waiting="0.00" lane="edge1_0" pos="10.85" speed="3.87" angle="90.00" x="10.85" y="-1.60"/>
    </timestep>
    <timestep time="21.00">
        <vehicle id="f1.1" eclass="HBEFA3/PC_G_EU4" CO2="3072.34" CO="17.89" HC="0.15" NOx="1.08" PMx="0.03" fuel="979.94" electricity="0.00" noise="64.30" route="!f1" type="car" waiting="0.00" lane="edge2_0" pos="97.15" speed="12.56" angle="90.00" x="197.15" y="-1.60"/>
        <vehicle id="f1.2" eclass="HBEFA3/PC_G_EU4" CO2="3490.43" CO="22.63" HC="0.18" NOx="1.27" PMx="0.04" fuel="1113.29" electricity="0.00" noise="64.95" route="!f1" type="car" waiting="0.00" lane="edge2_0" pos="63.05" speed="13.12" angle="90.00" x="163.05" y="-1.60"/>
        <vehicle id="f1.3" eclass="HBEFA3/PC_G_EU4" CO2="4696.79" CO="36.73" HC="0.28" NOx="1.79" PMx="0.07" fuel="1498.06" electricity="0.00" noise="66.74" route="!f1" type="car" waiting="0.00" lane="edge2_0" pos="35.48" speed="14.92" angle="90.00" x="135.48" y="-1.60"/>
        <vehicle id="f1.4" eclass="HBEFA3/PC_G_EU4" CO2="2256.91" CO="0.00" HC="0.04" NOx="0.68" PMx="0.01" fuel="719.86" electricity="0.00" noise="64.04" route="!f1" type="car" waiting="0.00" lane="edge1_0" pos="80.02" speed="13.16" angle="90.00" x="80.02" y="-1.60"/>
        <vehicle id="f1.5" eclass="HBEFA3/PC_G_EU4" CO2="7130.12" CO="114.18" HC="0.69" NOx="3.04" PMx="0.14" fuel="2274.16" electricity="0.00" noise="68.56" route="!f1" type="car" waiting="0.00" lane="edge1_0" pos="43.57" speed="10.94" angle="90.00" x="43.57" y="-1.60"/>
        <vehicle id="f1.6" eclass="HBEFA3/PC_G_EU4" CO2="6280.77" CO="144.35" HC="0.81" NOx="2.76" PMx="0.13" fuel="2003.28" electricity="0.00" noise="69.57" route="!f1" type="car" waiting="0.00" lane="edge1_0" pos="17.23" speed="6.37" angle="90.00" x="17.23" y="-1.60"/>
        <vehicle id="f1.7" eclass="HBEFA3/PC_G_EU4" CO2="2624.72" CO="164.78" HC="0.81" NOx="1.20" PMx="0.07" fuel="837.22" electricity="0.00" noise="55.94" route="!f1" type="car" waiting="0.00" lane="edge1_0" pos="5.10" speed="0.00" angle="90.00" x="5.10" y="-1.60"/>
    </timestep>
    <timestep time="22.00">
        <vehicle id="f1.2" eclass="HBEFA3/PC_G_EU4" CO2="2547.98" CO="2.71" HC="0.07" NOx="0.82" PMx="0.02" fuel="812.70" electricity="0.00" noise="64.27" route="!f1" type="car" waiting="0.00" lane="edge2_0" pos="76.25" speed="13.20" angle="90.00" x="176.25" y="-1.60"/>
        <vehicle id="f1.3" eclass="HBEFA3/PC_G_EU4" CO2="0.00" CO="0.00" HC="0.00" NOx="0.00" PMx="0.00" fuel="0.00" electricity="0.00" noise="62.39" route="!f1" type="car" waiting="0.00" lane="edge2_0" pos="49.18" speed="13.70" angle="90.00" x="149.18" y="-1.60"/>
        <vehicle id="f1.4" eclass="HBEFA3/PC_G_EU4" CO2="5206.24" CO="52.66" HC="0.36" NOx="2.06" PMx="0.09" fuel="1660.54" electricity="0.00" noise="66.76" route="!f1" type="car" waiting="0.00" lane="edge1_0" pos="93.97" speed="13.95" angle="90.00" x="93.97" y="-1.60"/>
        <vehicle id="f1.5" eclass="HBEFA3/PC_G_EU4" CO2="2040.15" CO="9.69" HC="0.09" NOx="0.64" PMx="0.01" fuel="650.73" electricity="0.00" noise="62.33" route="!f1" type="car" waiting="0.00" lane="edge1_0" pos="54.48" speed="10.90" angle="90.00" x="54.48" y="-1.60"/>
        <vehicle id="f1.6" eclass="HBEFA3/PC_G_EU4" CO2="7577.96" CO="143.83" HC="0.84" NOx="3.31" PMx="0.16" fuel="2417.01" electricity="0.00" noise="70.20" route="!f1" type="car" waiting="0.00" lane="edge1_0" pos="26.00" speed="8.77" angle="90.00" x="26.00" y="-1.60"/>
        <vehicle id="f1.7" eclass="HBEFA3/PC_G_EU4" CO2="3059.72" CO="147.55" HC="0.74" NOx="1.37" PMx="0.07" fuel="975.96" electricity="0.00" noise="63.29" route="!f1" type="car" waiting="0.00" lane="edge1_0" pos="6.64" speed="1.54" angle="90.00" x="6.64" y="-1.60"/>
    </timestep>
    <timestep time="23.00">
        <vehicle id="f1.2" eclass="HBEFA3/PC_G_EU4" CO2="5105.63" CO="50.56" HC="0.35" NOx="2.01" PMx="0.08" fuel="1628.45" electricity="0.00" noise="66.67" route="!f1" type="car" waiting="0.00" lane="edge2_0" pos="90.20" speed="13.96" angle="90.00" x="190.20" y="-1.60"/>
        <vehicle id="f1.3" eclass="HBEFA3/PC_G_EU4" CO2="3146.62" CO="10.40" HC="0.12" NOx="1.08" PMx="0.03" fuel="1003.63" electricity="0.00" noise="65.13" route="!f1" type="car" waiting="0.00" lane="edge2_0" pos="63.10" speed="13.93" angle="90.00" x="163.10" y="-1.60"/>
        <vehicle id="f1.4" eclass="HBEFA3/PC_G_EU4" CO2="0.00" CO="0.00" HC="0.00" NOx="0.00" PMx="0.00" fuel="0.00" electricity="0.00" noise="63.69" route="!f1" type="car" waiting="0.00" lane="edge2_0" pos="7.50" speed="13.63" angle="90.00" x="107.50" y="-1.60"/>
        <vehicle id="f1.5" eclass="HBEFA3/PC_G_EU4" CO2="3293.31" CO="32.26" HC="0.22" NOx="1.22" PMx="0.04" fuel="1050.42" electricity="0.00" noise="63.83" route="!f1" type="car" waiting="0.00" lane="edge1_0" pos="65.77" speed="11.29" angle="90.00" x="65.77" y="-1.60"/>
        <vehicle id="f1.6" eclass="HBEFA3/PC_G_EU4" CO2="6540.50" CO="106.74" HC="0.64" NOx="2.77" PMx="0.13" fuel="2086.11" electricity="0.00" noise="67.80" route="!f1" type="car" waiting="0.00" lane="edge1_0" pos="36.40" speed="10.40" angle="90.00" x="36.40" y="-1.60"/>
        <vehicle id="f1.7" eclass="HBEFA3/PC_G_EU4" CO2="4033.59" CO="137.30" HC="0.72" NOx="1.77" PMx="0.09" fuel="1286.56" electricity="0.00" noise="65.87" route="!f1" type="car" waiting="0.00" lane="edge1_0" pos="10.12" speed="3.48" angle="90.00" x="10.12" y="-1.60"/>
    </timestep>
    <timestep time="24.00">
        <vehicle id="f1.3" eclass="HBEFA3/PC_G_EU4" CO2="4447.98" CO="34.03" HC="0.26" NOx="1.68" PMx="0.07" fuel="1418.70" electricity="0.00" noise="66.36" route="!f1" type="car" waiting="0.00" lane="edge2_0" pos="77.58" speed="14.47" angle="90.00" x="177.58" y="-1.60"/>
        <vehicle id="f1.4" eclass="HBEFA3/PC_G_EU4" CO2="4658.48" CO="39.64" HC="0.29" NOx="1.79" PMx="0.07" fuel="1485.84" electricity="0.00" noise="66.42" route="!f1" type="car" waiting="0.00" lane="edge2_0" pos="21.75" speed="14.25" angle="90.00" x="121.75" y="-1.60"/>
        <vehicle id="f1.5" eclass="HBEFA3/PC_G_EU4" CO2="0.00" CO="0.00" HC="0.00" NOx="0.00" PMx="0.00" fuel="0.00" electricity="0.00" noise="60.15" route="!f1" type="car" waiting="0.00" lane="edge1_0" pos="76.24" speed="10.47" angle="90.00" x="76.24" y="-1.60"/>
        <vehicle id="f1.6" eclass="HBEFA3/PC_G_EU4" CO2="10858.68" CO="175.47" HC="1.06" NOx="4.75" PMx="0.24" fuel="3463.37" electricity="0.00" noise="72.81" route="!f1" type="car" waiting="0.00" lane="edge1_0" pos="49.35" speed="12.95" angle="90.00" x="49.35" y="-1.60"/>